56842238
  -OEChem-11032208372D

174169  0     1  0  0  0  0  0999 V2000
    9.5304    1.0369    0.0000 S   0  0  0  0  0  0  0  0  0  0  0  0
    0.5369   15.2060    0.0000 O   0  0  0  0  0  0  0  0  0  0  0  0
    1.4030   16.7060    0.0000 O   0  0  0  0  0  0  0  0  0  0  0  0
   19.3899   13.6113    0.0000 O   0  0  0  0  0  0  0  0  0  0  0  0
   18.5239   15.1113    0.0000 O   0  0  0  0  0  0  0  0  0  0  0  0
   13.1969   25.0133    0.0000 O   0  0  0  0  0  0  0  0  0  0  0  0
   11.5506   25.5513    0.0000 O   0  0  0  0  0  0  0  0  0  0  0  0
   12.1653   16.7757    0.0000 O   0  0  0  0  0  0  0  0  0  0  0  0
   11.2993   18.2757    0.0000 O   0  0  0  0  0  0  0  0  0  0  0  0
    8.6644    8.3463    0.0000 O   0  0  0  0  0  0  0  0  0  0  0  0
    9.5304    9.8463    0.0000 O   0  0  0  0  0  0  0  0  0  0  0  0
   25.0612   15.3013    0.0000 O   0  0  0  0  0  0  0  0  0  0  0  0
   23.3292   15.3013    0.0000 O   0  0  0  0  0  0  0  0  0  0  0  0
    4.0010   11.2766    0.0000 O   0  0  0  0  0  0  0  0  0  0  0  0
   12.1285    3.5369    0.0000 O   0  0  0  0  0  0  0  0  0  0  0  0
   11.2625    5.0369    0.0000 O   0  0  0  0  0  0  0  0  0  0  0  0
    1.4030    9.7766    0.0000 O   0  0  0  0  0  0  0  0  0  0  0  0
    2.2690    8.2766    0.0000 O   0  0  0  0  0  0  0  0  0  0  0  0
    2.2690   14.2060    0.0000 N   0  0  0  0  0  0  0  0  0  0  0  0
   10.6186   21.0903    0.0000 N   0  0  0  0  0  0  0  0  0  0  0  0
   16.7918   14.1113    0.0000 N   0  0  0  0  0  0  0  0  0  0  0  0
   12.5756   23.1122    0.0000 N   0  0  0  0  0  0  0  0  0  0  0  0
    9.5672   17.2757    0.0000 N   0  0  0  0  0  0  0  0  0  0  0  0
    8.7012   12.7757    0.0000 N   0  0  0  0  0  0  0  0  0  0  0  0
   10.3964    7.3463    0.0000 N   0  0  0  0  0  0  0  0  0  0  0  0
   25.0612   13.3013    0.0000 N   0  0  0  0  0  0  0  0  0  0  0  0
    9.5304    4.0369    0.0000 N   0  0  0  0  0  0  0  0  0  0  0  0
    4.0010    9.2766    0.0000 N   0  0  0  0  0  0  0  0  0  0  0  0
    3.1350   15.7060    0.0000 C   0  0  2  0  0  0  0  0  0  0  0  0
    2.2690   15.2060    0.0000 C   0  0  1  0  0  0  0  0  0  0  0  0
    4.0010   15.2060    0.0000 C   0  0  0  0  0  0  0  0  0  0  0  0
    3.1350   16.7060    0.0000 C   0  0  0  0  0  0  0  0  0  0  0  0
   16.7918   12.1113    0.0000 C   0  0  0  0  0  0  0  0  0  0  0  0
   17.6579   12.6113    0.0000 C   0  0  0  0  0  0  0  0  0  0  0  0
    4.8671   15.7060    0.0000 C   0  0  0  0  0  0  0  0  0  0  0  0
   17.6579   13.6113    0.0000 C   0  0  1  0  0  0  0  0  0  0  0  0
    1.4030   15.7060    0.0000 C   0  0  0  0  0  0  0  0  0  0  0  0
   10.6186   22.6998    0.0000 C   0  0  0  0  0  0  0  0  0  0  0  0
   10.9292   23.6503    0.0000 C   0  0  0  0  0  0  0  0  0  0  0  0
   16.7918   11.1113    0.0000 C   0  0  0  0  0  0  0  0  0  0  0  0
   15.9258   12.6113    0.0000 C   0  0  0  0  0  0  0  0  0  0  0  0
    9.6724   22.3950    0.0000 C   0  0  0  0  0  0  0  0  0  0  0  0
    9.6724   21.3950    0.0000 C   0  0  0  0  0  0  0  0  0  0  0  0
   11.9077   23.8565    0.0000 C   0  0  1  0  0  0  0  0  0  0  0  0
   11.2022   21.8950    0.0000 C   0  0  0  0  0  0  0  0  0  0  0  0
    9.5672   15.2757    0.0000 C   0  0  0  0  0  0  0  0  0  0  0  0
   10.4333   15.7757    0.0000 C   0  0  0  0  0  0  0  0  0  0  0  0
   18.5239   14.1113    0.0000 C   0  0  0  0  0  0  0  0  0  0  0  0
    9.5672   14.2757    0.0000 C   0  0  0  0  0  0  0  0  0  0  0  0
    8.8063   22.8950    0.0000 C   0  0  0  0  0  0  0  0  0  0  0  0
   10.4333   16.7757    0.0000 C   0  0  1  0  0  0  0  0  0  0  0  0
    8.8063   20.8950    0.0000 C   0  0  0  0  0  0  0  0  0  0  0  0
    7.9403   22.3950    0.0000 C   0  0  0  0  0  0  0  0  0  0  0  0
    7.9403   21.3950    0.0000 C   0  0  0  0  0  0  0  0  0  0  0  0
    8.7012   13.7757    0.0000 C   0  0  0  0  0  0  0  0  0  0  0  0
   12.2184   24.8070    0.0000 C   0  0  0  0  0  0  0  0  0  0  0  0
   11.2625    8.8463    0.0000 C   0  0  0  0  0  0  0  0  0  0  0  0
   10.3964    8.3463    0.0000 C   0  0  1  0  0  0  0  0  0  0  0  0
   11.2993   17.2757    0.0000 C   0  0  0  0  0  0  0  0  0  0  0  0
   12.1285    8.3463    0.0000 C   0  0  0  0  0  0  0  0  0  0  0  0
   11.2625    9.8463    0.0000 C   0  0  0  0  0  0  0  0  0  0  0  0
    9.5304    8.8463    0.0000 C   0  0  0  0  0  0  0  0  0  0  0  0
   23.3292   13.3013    0.0000 C   0  0  0  0  0  0  0  0  0  0  0  0
   24.1952   13.8013    0.0000 C   0  0  1  0  0  0  0  0  0  0  0  0
   23.3292   12.3013    0.0000 C   0  0  0  0  0  0  0  0  0  0  0  0
   22.4632   11.8013    0.0000 C   0  0  0  0  0  0  0  0  0  0  0  0
   24.1952   11.8013    0.0000 C   0  0  0  0  0  0  0  0  0  0  0  0
   24.1952   14.8013    0.0000 C   0  0  0  0  0  0  0  0  0  0  0  0
   10.3964    2.5369    0.0000 C   0  0  0  0  0  0  0  0  0  0  0  0
   10.3964    3.5369    0.0000 C   0  0  1  0  0  0  0  0  0  0  0  0
   22.4632   10.8013    0.0000 C   0  0  0  0  0  0  0  0  0  0  0  0
   24.1952   10.8013    0.0000 C   0  0  0  0  0  0  0  0  0  0  0  0
   23.3292   10.3013    0.0000 C   0  0  0  0  0  0  0  0  0  0  0  0
    3.1350   10.7766    0.0000 C   0  0  1  0  0  0  0  0  0  0  0  0
    9.5304    2.0369    0.0000 C   0  0  0  0  0  0  0  0  0  0  0  0
    3.1350    9.7766    0.0000 C   0  0  1  0  0  0  0  0  0  0  0  0
    2.2690   11.2766    0.0000 C   0  0  0  0  0  0  0  0  0  0  0  0
   11.2625    4.0369    0.0000 C   0  0  0  0  0  0  0  0  0  0  0  0
    2.2690    9.2766    0.0000 C   0  0  0  0  0  0  0  0  0  0  0  0
    8.6644    0.5369    0.0000 C   0  0  0  0  0  0  0  0  0  0  0  0
    3.6720   16.0160    0.0000 H   0  0  0  0  0  0  0  0  0  0  0  0
    1.7320   14.8960    0.0000 H   0  0  0  0  0  0  0  0  0  0  0  0
    3.6025   14.7310    0.0000 H   0  0  0  0  0  0  0  0  0  0  0  0
    4.3996   14.7310    0.0000 H   0  0  0  0  0  0  0  0  0  0  0  0
    3.7550   16.7060    0.0000 H   0  0  0  0  0  0  0  0  0  0  0  0
    3.1350   17.3260    0.0000 H   0  0  0  0  0  0  0  0  0  0  0  0
    2.5150   16.7060    0.0000 H   0  0  0  0  0  0  0  0  0  0  0  0
   16.7918   12.7313    0.0000 H   0  0  0  0  0  0  0  0  0  0  0  0
   17.8699   12.0287    0.0000 H   0  0  0  0  0  0  0  0  0  0  0  0
   18.2685   12.7189    0.0000 H   0  0  0  0  0  0  0  0  0  0  0  0
    5.1771   15.1690    0.0000 H   0  0  0  0  0  0  0  0  0  0  0  0
    5.4040   16.0160    0.0000 H   0  0  0  0  0  0  0  0  0  0  0  0
    4.5571   16.2429    0.0000 H   0  0  0  0  0  0  0  0  0  0  0  0
   17.1209   13.3013    0.0000 H   0  0  0  0  0  0  0  0  0  0  0  0
    1.7320   13.8960    0.0000 H   0  0  0  0  0  0  0  0  0  0  0  0
    2.8059   13.8960    0.0000 H   0  0  0  0  0  0  0  0  0  0  0  0
   10.9087   24.2700    0.0000 H   0  0  0  0  0  0  0  0  0  0  0  0
   10.3154   23.7376    0.0000 H   0  0  0  0  0  0  0  0  0  0  0  0
   16.1718   11.1113    0.0000 H   0  0  0  0  0  0  0  0  0  0  0  0
   16.7918   10.4913    0.0000 H   0  0  0  0  0  0  0  0  0  0  0  0
   17.4118   11.1113    0.0000 H   0  0  0  0  0  0  0  0  0  0  0  0
   16.2358   13.1482    0.0000 H   0  0  0  0  0  0  0  0  0  0  0  0
   15.3889   12.9213    0.0000 H   0  0  0  0  0  0  0  0  0  0  0  0
   15.6158   12.0744    0.0000 H   0  0  0  0  0  0  0  0  0  0  0  0
   12.5144   23.9844    0.0000 H   0  0  0  0  0  0  0  0  0  0  0  0
   11.8222   21.8950    0.0000 H   0  0  0  0  0  0  0  0  0  0  0  0
    9.3552   15.8583    0.0000 H   0  0  0  0  0  0  0  0  0  0  0  0
    8.9567   15.1680    0.0000 H   0  0  0  0  0  0  0  0  0  0  0  0
   10.8112   20.5010    0.0000 H   0  0  0  0  0  0  0  0  0  0  0  0
   10.6453   15.1931    0.0000 H   0  0  0  0  0  0  0  0  0  0  0  0
   11.0438   15.8833    0.0000 H   0  0  0  0  0  0  0  0  0  0  0  0
    9.7793   13.6931    0.0000 H   0  0  0  0  0  0  0  0  0  0  0  0
   10.1778   14.3833    0.0000 H   0  0  0  0  0  0  0  0  0  0  0  0
    8.8063   23.5150    0.0000 H   0  0  0  0  0  0  0  0  0  0  0  0
   16.2549   13.8013    0.0000 H   0  0  0  0  0  0  0  0  0  0  0  0
   16.7918   14.7313    0.0000 H   0  0  0  0  0  0  0  0  0  0  0  0
    9.8963   16.4657    0.0000 H   0  0  0  0  0  0  0  0  0  0  0  0
    8.8063   20.2750    0.0000 H   0  0  0  0  0  0  0  0  0  0  0  0
    0.0000   15.5160    0.0000 H   0  0  0  0  0  0  0  0  0  0  0  0
    7.4034   22.7050    0.0000 H   0  0  0  0  0  0  0  0  0  0  0  0
    8.4892   14.3583    0.0000 H   0  0  0  0  0  0  0  0  0  0  0  0
    8.0906   13.6680    0.0000 H   0  0  0  0  0  0  0  0  0  0  0  0
    7.4034   21.0850    0.0000 H   0  0  0  0  0  0  0  0  0  0  0  0
   13.1823   23.2401    0.0000 H   0  0  0  0  0  0  0  0  0  0  0  0
   12.3830   22.5229    0.0000 H   0  0  0  0  0  0  0  0  0  0  0  0
   10.7255    9.1563    0.0000 H   0  0  0  0  0  0  0  0  0  0  0  0
   10.9334    8.0363    0.0000 H   0  0  0  0  0  0  0  0  0  0  0  0
    9.0303   16.9657    0.0000 H   0  0  0  0  0  0  0  0  0  0  0  0
    9.5672   17.8957    0.0000 H   0  0  0  0  0  0  0  0  0  0  0  0
   19.9269   13.9213    0.0000 H   0  0  0  0  0  0  0  0  0  0  0  0
   11.8185    7.8094    0.0000 H   0  0  0  0  0  0  0  0  0  0  0  0
   12.6654    8.0363    0.0000 H   0  0  0  0  0  0  0  0  0  0  0  0
   12.4385    8.8832    0.0000 H   0  0  0  0  0  0  0  0  0  0  0  0
   11.8825    9.8463    0.0000 H   0  0  0  0  0  0  0  0  0  0  0  0
   11.2625   10.4663    0.0000 H   0  0  0  0  0  0  0  0  0  0  0  0
   10.6425    9.8463    0.0000 H   0  0  0  0  0  0  0  0  0  0  0  0
    8.1643   12.4657    0.0000 H   0  0  0  0  0  0  0  0  0  0  0  0
    9.2381   12.4657    0.0000 H   0  0  0  0  0  0  0  0  0  0  0  0
   13.3895   25.6026    0.0000 H   0  0  0  0  0  0  0  0  0  0  0  0
    9.8595    7.0363    0.0000 H   0  0  0  0  0  0  0  0  0  0  0  0
   10.9334    7.0363    0.0000 H   0  0  0  0  0  0  0  0  0  0  0  0
   12.7022   17.0857    0.0000 H   0  0  0  0  0  0  0  0  0  0  0  0
    8.1275    8.6563    0.0000 H   0  0  0  0  0  0  0  0  0  0  0  0
   23.1171   13.8839    0.0000 H   0  0  0  0  0  0  0  0  0  0  0  0
   22.7186   13.1936    0.0000 H   0  0  0  0  0  0  0  0  0  0  0  0
   24.7322   14.1113    0.0000 H   0  0  0  0  0  0  0  0  0  0  0  0
   21.9262   12.1113    0.0000 H   0  0  0  0  0  0  0  0  0  0  0  0
   24.7322   12.1113    0.0000 H   0  0  0  0  0  0  0  0  0  0  0  0
   25.5982   13.6113    0.0000 H   0  0  0  0  0  0  0  0  0  0  0  0
   25.0612   12.6813    0.0000 H   0  0  0  0  0  0  0  0  0  0  0  0
   10.6085    1.9543    0.0000 H   0  0  0  0  0  0  0  0  0  0  0  0
   11.0070    2.6446    0.0000 H   0  0  0  0  0  0  0  0  0  0  0  0
   10.3964    4.1569    0.0000 H   0  0  0  0  0  0  0  0  0  0  0  0
   21.9262   10.4913    0.0000 H   0  0  0  0  0  0  0  0  0  0  0  0
   24.7322   10.4913    0.0000 H   0  0  0  0  0  0  0  0  0  0  0  0
   23.3292    9.6813    0.0000 H   0  0  0  0  0  0  0  0  0  0  0  0
    3.6720   10.4666    0.0000 H   0  0  0  0  0  0  0  0  0  0  0  0
    3.1350    9.1566    0.0000 H   0  0  0  0  0  0  0  0  0  0  0  0
    9.3184    2.6196    0.0000 H   0  0  0  0  0  0  0  0  0  0  0  0
    8.9198    1.9293    0.0000 H   0  0  0  0  0  0  0  0  0  0  0  0
    2.5790   11.8135    0.0000 H   0  0  0  0  0  0  0  0  0  0  0  0
    1.7320   11.5866    0.0000 H   0  0  0  0  0  0  0  0  0  0  0  0
    1.9590   10.7397    0.0000 H   0  0  0  0  0  0  0  0  0  0  0  0
    8.9935    3.7269    0.0000 H   0  0  0  0  0  0  0  0  0  0  0  0
    9.5304    4.6569    0.0000 H   0  0  0  0  0  0  0  0  0  0  0  0
   25.0612   15.9213    0.0000 H   0  0  0  0  0  0  0  0  0  0  0  0
    4.5380    9.5866    0.0000 H   0  0  0  0  0  0  0  0  0  0  0  0
    4.0010    8.6566    0.0000 H   0  0  0  0  0  0  0  0  0  0  0  0
    4.0010   11.8966    0.0000 H   0  0  0  0  0  0  0  0  0  0  0  0
    8.3544    1.0739    0.0000 H   0  0  0  0  0  0  0  0  0  0  0  0
    8.1275    0.2269    0.0000 H   0  0  0  0  0  0  0  0  0  0  0  0
    8.9744    0.0000    0.0000 H   0  0  0  0  0  0  0  0  0  0  0  0
   12.6654    3.8469    0.0000 H   0  0  0  0  0  0  0  0  0  0  0  0
    0.8660    9.4666    0.0000 H   0  0  0  0  0  0  0  0  0  0  0  0
  1 75  1  0  0  0  0
  1 80  1  0  0  0  0
  2 37  1  0  0  0  0
  2119  1  0  0  0  0
  3 37  2  0  0  0  0
  4 48  1  0  0  0  0
  4130  1  0  0  0  0
  5 48  2  0  0  0  0
  6 56  1  0  0  0  0
  6139  1  0  0  0  0
  7 56  2  0  0  0  0
  8 59  1  0  0  0  0
  8142  1  0  0  0  0
  9 59  2  0  0  0  0
 10 62  1  0  0  0  0
 10143  1  0  0  0  0
 11 62  2  0  0  0  0
 12 68  1  0  0  0  0
 12166  1  0  0  0  0
 13 68  2  0  0  0  0
 74 14  1  1  0  0  0
 14169  1  0  0  0  0
 15 78  1  0  0  0  0
 15173  1  0  0  0  0
 16 78  2  0  0  0  0
 17 79  1  0  0  0  0
 17174  1  0  0  0  0
 18 79  2  0  0  0  0
 30 19  1  6  0  0  0
 19 95  1  0  0  0  0
 19 96  1  0  0  0  0
 20 43  1  0  0  0  0
 20 45  1  0  0  0  0
 20109  1  0  0  0  0
 36 21  1  6  0  0  0
 21115  1  0  0  0  0
 21116  1  0  0  0  0
 44 22  1  1  0  0  0
 22124  1  0  0  0  0
 22125  1  0  0  0  0
 51 23  1  6  0  0  0
 23128  1  0  0  0  0
 23129  1  0  0  0  0
 24 55  1  0  0  0  0
 24137  1  0  0  0  0
 24138  1  0  0  0  0
 58 25  1  6  0  0  0
 25140  1  0  0  0  0
 25141  1  0  0  0  0
 64 26  1  1  0  0  0
 26149  1  0  0  0  0
 26150  1  0  0  0  0
 70 27  1  6  0  0  0
 27164  1  0  0  0  0
 27165  1  0  0  0  0
 76 28  1  6  0  0  0
 28167  1  0  0  0  0
 28168  1  0  0  0  0
 29 30  1  0  0  0  0
 29 31  1  0  0  0  0
 29 32  1  1  0  0  0
 29 81  1  0  0  0  0
 30 37  1  0  0  0  0
 30 82  1  0  0  0  0
 31 35  1  0  0  0  0
 31 83  1  0  0  0  0
 31 84  1  0  0  0  0
 32 85  1  0  0  0  0
 32 86  1  0  0  0  0
 32 87  1  0  0  0  0
 33 34  1  0  0  0  0
 33 40  1  0  0  0  0
 33 41  1  0  0  0  0
 33 88  1  0  0  0  0
 34 36  1  0  0  0  0
 34 89  1  0  0  0  0
 34 90  1  0  0  0  0
 35 91  1  0  0  0  0
 35 92  1  0  0  0  0
 35 93  1  0  0  0  0
 36 48  1  0  0  0  0
 36 94  1  0  0  0  0
 38 39  1  0  0  0  0
 38 42  1  0  0  0  0
 38 45  2  0  0  0  0
 39 44  1  0  0  0  0
 39 97  1  0  0  0  0
 39 98  1  0  0  0  0
 40 99  1  0  0  0  0
 40100  1  0  0  0  0
 40101  1  0  0  0  0
 41102  1  0  0  0  0
 41103  1  0  0  0  0
 41104  1  0  0  0  0
 42 43  1  0  0  0  0
 42 50  2  0  0  0  0
 43 52  2  0  0  0  0
 44 56  1  0  0  0  0
 44105  1  0  0  0  0
 45106  1  0  0  0  0
 46 47  1  0  0  0  0
 46 49  1  0  0  0  0
 46107  1  0  0  0  0
 46108  1  0  0  0  0
 47 51  1  0  0  0  0
 47110  1  0  0  0  0
 47111  1  0  0  0  0
 49 55  1  0  0  0  0
 49112  1  0  0  0  0
 49113  1  0  0  0  0
 50 53  1  0  0  0  0
 50114  1  0  0  0  0
 51 59  1  0  0  0  0
 51117  1  0  0  0  0
 52 54  1  0  0  0  0
 52118  1  0  0  0  0
 53 54  2  0  0  0  0
 53120  1  0  0  0  0
 54123  1  0  0  0  0
 55121  1  0  0  0  0
 55122  1  0  0  0  0
 57 58  1  0  0  0  0
 57 60  1  0  0  0  0
 57 61  1  0  0  0  0
 57126  1  0  0  0  0
 58 62  1  0  0  0  0
 58127  1  0  0  0  0
 60131  1  0  0  0  0
 60132  1  0  0  0  0
 60133  1  0  0  0  0
 61134  1  0  0  0  0
 61135  1  0  0  0  0
 61136  1  0  0  0  0
 63 64  1  0  0  0  0
 63 65  1  0  0  0  0
 63144  1  0  0  0  0
 63145  1  0  0  0  0
 64 68  1  0  0  0  0
 64146  1  0  0  0  0
 65 66  2  0  0  0  0
 65 67  1  0  0  0  0
 66 71  1  0  0  0  0
 66147  1  0  0  0  0
 67 72  2  0  0  0  0
 67148  1  0  0  0  0
 69 70  1  0  0  0  0
 69 75  1  0  0  0  0
 69151  1  0  0  0  0
 69152  1  0  0  0  0
 70 78  1  0  0  0  0
 70153  1  0  0  0  0
 71 73  2  0  0  0  0
 71154  1  0  0  0  0
 72 73  1  0  0  0  0
 72155  1  0  0  0  0
 73156  1  0  0  0  0
 74 76  1  0  0  0  0
 74 77  1  0  0  0  0
 74157  1  0  0  0  0
 75159  1  0  0  0  0
 75160  1  0  0  0  0
 76 79  1  0  0  0  0
 76158  1  0  0  0  0
 77161  1  0  0  0  0
 77162  1  0  0  0  0
 77163  1  0  0  0  0
 80170  1  0  0  0  0
 80171  1  0  0  0  0
 80172  1  0  0  0  0
M  END
> <PUBCHEM_COMPOUND_CID>
56842238

> <PUBCHEM_COMPOUND_CANONICALIZED>
1

> <PUBCHEM_CACTVS_COMPLEXITY>
988

> <PUBCHEM_CACTVS_HBOND_ACCEPTOR>
27

> <PUBCHEM_CACTVS_HBOND_DONOR>
19

> <PUBCHEM_CACTVS_ROTATABLE_BOND>
25

> <PUBCHEM_CACTVS_SUBSKEYS>
AAADcfB//gBAAAAAAAAAAAAAAAAAAWAAAAAwYAAAAAAAAFgB9AAAHgQQCAAADTzl3ga+yPLJkgioAzT3TACCgCAxAjAI2aG4ZJgKMPbgkZGEYAhlsADIyAeY2fKOgAAAAAACAAAAAAAAAAQAAAAAAAAAAA==

> <PUBCHEM_IUPAC_OPENEYE_NAME>
(2S,3R)-2-amino-3-hydroxy-butanoic acid;(2S)-2-amino-3-(1H-indol-3-yl)propanoic acid;(2S)-2-amino-3-methyl-butanoic acid;(2S)-2-amino-4-methyl-pentanoic acid;(2S,3S)-2-amino-3-methyl-pentanoic acid;(2S)-2-amino-4-methylsulfanyl-butanoic acid;(2S)-2-amino-3-phenyl-propanoic acid;(2S)-2,6-diaminohexanoic acid

> <PUBCHEM_IUPAC_CAS_NAME>
(2S,3R)-2-amino-3-hydroxybutanoic acid;(2S)-2-amino-3-(1H-indol-3-yl)propanoic acid;(2S)-2-amino-3-methylbutanoic acid;(2S)-2-amino-4-methylpentanoic acid;(2S,3S)-2-amino-3-methylpentanoic acid;(2S)-2-amino-4-(methylthio)butanoic acid;(2S)-2-amino-3-phenylpropanoic acid;(2S)-2,6-diaminohexanoic acid

> <PUBCHEM_IUPAC_NAME_MARKUP>
(2<I>S</I>,3<I>R</I>)-2-amino-3-hydroxybutanoic acid;(2<I>S</I>)-2-amino-3-(1<I>H</I>-indol-3-yl)propanoic acid;(2<I>S</I>)-2-amino-3-methylbutanoic acid;(2<I>S</I>)-2-amino-4-methylpentanoic acid;(2<I>S</I>,3<I>S</I>)-2-amino-3-methylpentanoic acid;(2<I>S</I>)-2-amino-4-methylsulfanylbutanoic acid;(2<I>S</I>)-2-amino-3-phenylpropanoic acid;(2<I>S</I>)-2,6-diaminohexanoic acid

> <PUBCHEM_IUPAC_NAME>
(2S,3R)-2-amino-3-hydroxybutanoic acid;(2S)-2-amino-3-(1H-indol-3-yl)propanoic acid;(2S)-2-amino-3-methylbutanoic acid;(2S)-2-amino-4-methylpentanoic acid;(2S,3S)-2-amino-3-methylpentanoic acid;(2S)-2-amino-4-methylsulfanylbutanoic acid;(2S)-2-amino-3-phenylpropanoic acid;(2S)-2,6-diaminohexanoic acid

> <PUBCHEM_IUPAC_SYSTEMATIC_NAME>
(2S)-2-azanyl-3-(1H-indol-3-yl)propanoic acid;(2S)-2-azanyl-3-methyl-butanoic acid;(2S)-2-azanyl-4-methyl-pentanoic acid;(2S,3S)-2-azanyl-3-methyl-pentanoic acid;(2S)-2-azanyl-4-methylsulfanyl-butanoic acid;(2S,3R)-2-azanyl-3-oxidanyl-butanoic acid;(2S)-2-azanyl-3-phenyl-propanoic acid;(2S)-2,6-bis(azanyl)hexanoic acid

> <PUBCHEM_IUPAC_TRADITIONAL_NAME>
(2S,3R)-2-amino-3-hydroxy-butyric acid;(2S)-2-amino-3-(1H-indol-3-yl)propionic acid;(2S)-2-amino-3-methyl-butyric acid;(2S)-2-amino-4-(methylthio)butyric acid;(2S)-2-amino-4-methyl-valeric acid;(2S,3S)-2-amino-3-methyl-valeric acid;(2S)-2-amino-3-phenyl-propionic acid;(2S)-2,6-diaminohexanoic acid

> <PUBCHEM_IUPAC_INCHI>
InChI=1S/C11H12N2O2.C9H11NO2.C6H14N2O2.2C6H13NO2.C5H11NO2S.C5H11NO2.C4H9NO3/c12-9(11(14)15)5-7-6-13-10-4-2-1-3-8(7)10;10-8(9(11)12)6-7-4-2-1-3-5-7;7-4-2-1-3-5(8)6(9)10;1-4(2)3-5(7)6(8)9;1-3-4(2)5(7)6(8)9;1-9-3-2-4(6)5(7)8;1-3(2)4(6)5(7)8;1-2(6)3(5)4(7)8/h1-4,6,9,13H,5,12H2,(H,14,15);1-5,8H,6,10H2,(H,11,12);5H,1-4,7-8H2,(H,9,10);2*4-5H,3,7H2,1-2H3,(H,8,9);4H,2-3,6H2,1H3,(H,7,8);3-4H,6H2,1-2H3,(H,7,8);2-3,6H,5H2,1H3,(H,7,8)/t9-;8-;2*5-;4-,5-;2*4-;2-,3+/m00000001/s1

> <PUBCHEM_IUPAC_INCHIKEY>
CSARAUHTYFKILW-HGFMUWJKSA-N

> <PUBCHEM_EXACT_MASS>
1162.65191274

> <PUBCHEM_MOLECULAR_FORMULA>
C52H94N10O17S

> <PUBCHEM_MOLECULAR_WEIGHT>
1163.4

> <PUBCHEM_OPENEYE_CAN_SMILES>
CCC(C)C(C(=O)O)N.CC(C)CC(C(=O)O)N.CC(C)C(C(=O)O)N.CC(C(C(=O)O)N)O.CSCCC(C(=O)O)N.C1=CC=C(C=C1)CC(C(=O)O)N.C1=CC=C2C(=C1)C(=CN2)CC(C(=O)O)N.C(CCN)CC(C(=O)O)N

> <PUBCHEM_OPENEYE_ISO_SMILES>
CC[C@H](C)[C@@H](C(=O)O)N.C[C@H]([C@@H](C(=O)O)N)O.CC(C)C[C@@H](C(=O)O)N.CC(C)[C@@H](C(=O)O)N.CSCC[C@@H](C(=O)O)N.C1=CC=C(C=C1)C[C@@H](C(=O)O)N.C1=CC=C2C(=C1)C(=CN2)C[C@@H](C(=O)O)N.C(CCN)C[C@@H](C(=O)O)N

> <PUBCHEM_CACTVS_TPSA>
594

> <PUBCHEM_MONOISOTOPIC_WEIGHT>
1162.65191274

> <PUBCHEM_TOTAL_CHARGE>
0

> <PUBCHEM_HEAVY_ATOM_COUNT>
80

> <PUBCHEM_ATOM_DEF_STEREO_COUNT>
10

> <PUBCHEM_ATOM_UDEF_STEREO_COUNT>
0

> <PUBCHEM_BOND_DEF_STEREO_COUNT>
0

> <PUBCHEM_BOND_UDEF_STEREO_COUNT>
0

> <PUBCHEM_ISOTOPIC_ATOM_COUNT>
0

> <PUBCHEM_COMPONENT_COUNT>
8

> <PUBCHEM_CACTVS_TAUTO_COUNT>
-1

> <PUBCHEM_COORDINATE_TYPE>
1
5
255

> <PUBCHEM_BONDANNOTATIONS>
74  14  5
30  19  6
20  43  8
20  45  8
36  21  6
44  22  5
51  23  6
58  25  6
64  26  5
70  27  6
76  28  6
29  32  5
38  42  8
38  45  8
42  43  8
42  50  8
43  52  8
50  53  8
52  54  8
53  54  8
65  66  8
65  67  8
66  71  8
67  72  8
71  73  8
72  73  8

$$$$
